 Gaussian 09, Revision D.01,
 Gaussian 09:  EM64L-G09RevD.01 24-Apr-2013

 ----------------------------------------------------------------------
 #B3LYP/gen gfinput scf=(maxcycle=1000,conver=4) Polar CPHF=RdFreq scrf
 =(solvent=THF) pseudo=read
 ----------------------------------------------------------------------

 -----------
 propriedade
 -----------
 Symbolic Z-matrix:
 Charge =  0 Multiplicity = 1

                         Standard orientation:
 ---------------------------------------------------------------------
 Center     Atomic      Atomic             Coordinates (Angstroms)
 Number     Number       Type             X           Y           Z
 ---------------------------------------------------------------------
      1         44           0        0.879529    0.004921    0.253265
      2         17           0        3.317377    0.017055    1.016779
      3         15           0        1.002757    1.410242   -1.717022
      4         15           0        1.023410   -1.391118   -1.729130
      5         15           0        0.554348    1.414156    2.178573
      6         15           0        0.618483   -1.395908    2.195837
      7          8           0       -8.512169   -0.081986   -1.216055
      8          8           0       -7.796392   -0.064365   -3.259446
      9          7           0       -7.606667   -0.069293   -2.045606
     10          7           0       -3.906357   -0.034599   -2.095410
     11          6           0       -1.041916   -0.015994   -0.112564
     12          6           0       -2.252978   -0.027490   -0.385878
     13          6           0       -3.609222   -0.038875   -0.759564
     14          6           0       -4.650321   -0.054573    0.215928
     15          6           0       -5.971366   -0.064806   -0.185868
     16          6           0       -6.241353   -0.059517   -1.563874
     17          6           0       -5.174920   -0.044594   -2.474641
     18          6           0        0.481572    0.011057   -2.844959
     19          6           0        0.881577    0.023646    3.385876
     20          6           0       -0.156042    2.822117   -1.990750
     21          6           0       -1.464523    2.654367   -2.472851
     22          6           0       -2.315263    3.758187   -2.603692
     23          6           0       -1.878362    5.036794   -2.247211
     24          6           0       -0.579957    5.210840   -1.754808
     25          6           0        0.274101    4.112967   -1.628078
     26          6           0        2.553563    2.042318   -2.504366
     27          6           0        2.501305    2.610887   -3.792319
     28          6           0        3.664279    3.076796   -4.407275
     29          6           0        4.894606    2.985121   -3.743491
     30          6           0        4.953583    2.420787   -2.467734
     31          6           0        3.789766    1.946442   -1.847725
     32          6           0       -0.115445   -2.815746   -2.026906
     33          6           0       -1.430662   -2.655854   -2.493847
     34          6           0       -2.265876   -3.768729   -2.646191
     35          6           0       -1.807051   -5.049456   -2.326701
     36          6           0       -0.501576   -5.216464   -1.851278
     37          6           0        0.337075   -4.109371   -1.703770
     38          6           0        2.585239   -1.992991   -2.517835
     39          6           0        2.551339   -2.523705   -3.822466
     40          6           0        3.723631   -2.968356   -4.435304
     41          6           0        4.944750   -2.893598   -3.752505
     42          6           0        4.985313   -2.367796   -2.459716
     43          6           0        3.812066   -1.914486   -1.841656
     44          6           0       -1.117788    2.090182    2.567749
     45          6           0       -1.809246    1.826698    3.760262
     46          6           0       -3.057553    2.412401    4.002724
     47          6           0       -3.626645    3.270417    3.058403
     48          6           0       -2.944977    3.537407    1.865546
     49          6           0       -1.703580    2.947667    1.619023
     50          6           0        1.648878    2.813727    2.683816
     51          6           0        2.575808    3.343401    1.774768
     52          6           0        3.388614    4.421438    2.141747
     53          6           0        3.288858    4.972229    3.422338
     54          6           0        2.369370    4.445432    4.337052
     55          6           0        1.549921    3.375519    3.969207
     56          6           0        1.795880   -2.723439    2.707044
     57          6           0        1.885058   -3.136677    4.047602
     58          6           0        2.755628   -4.166914    4.412656
     59          6           0        3.539270   -4.801061    3.441807
     60          6           0        3.453288   -4.396565    2.106606
     61          6           0        2.589842   -3.358534    1.741709
     62          6           0       -1.010900   -2.158446    2.608254
     63          6           0       -1.631209   -2.944751    1.621607
     64          6           0       -2.834819   -3.601193    1.890882
     65          6           0       -3.441472   -3.472597    3.144977
     66          6           0       -2.835928   -2.687089    4.129814
     67          6           0       -1.626426   -2.035730    3.864243
     68          1           0       -4.387067   -0.057884    1.273802
     69          1           0       -6.793911   -0.076584    0.529422
     70          1           0       -5.388109   -0.040910   -3.547420
     71          1           0       -0.613801    0.002415   -2.909435
     72          1           0        0.912499    0.019011   -3.856252
     73          1           0        1.961234    0.051233    3.591318
     74          1           0        0.339789    0.022433    4.341290
     75          1           0       -1.848050    1.667672   -2.735634
     76          1           0       -3.328892    3.610133   -2.984505
     77          1           0       -2.546206    5.895570   -2.351833
     78          1           0       -0.227798    6.205600   -1.470475
     79          1           0        1.286075    4.268218   -1.246272
     80          1           0        1.547128    2.696614   -4.318780
     81          1           0        3.611032    3.514843   -5.407272
     82          1           0        5.804391    3.353274   -4.224784
     83          1           0        5.911101    2.342252   -1.946393
     84          1           0        3.845010    1.484916   -0.859028
     85          1           0       -1.831546   -1.669222   -2.729231
     86          1           0       -3.284641   -3.626159   -3.015244
     87          1           0       -2.463000   -5.915215   -2.447742
     88          1           0       -0.131358   -6.212875   -1.597342
     89          1           0        1.355946   -4.260423   -1.339324
     90          1           0        1.604368   -2.596625   -4.363709
     91          1           0        3.685076   -3.376582   -5.448507
     92          1           0        5.861871   -3.244949   -4.232457
     93          1           0        5.935601   -2.302802   -1.923502
     94          1           0        3.852314   -1.481832   -0.839361
     95          1           0       -1.386339    1.164942    4.517284
     96          1           0       -3.582986    2.195592    4.936244
     97          1           0       -4.600653    3.728135    3.249048
     98          1           0       -3.384728    4.201649    1.117671
     99          1           0       -1.190024    3.152109    0.677584
    100          1           0        2.670738    2.899361    0.784253
    101          1           0        4.106303    4.826434    1.423847
    102          1           0        3.926448    5.812267    3.709569
    103          1           0        2.285907    4.872448    5.339691
    104          1           0        0.825716    2.985971    4.689081
    105          1           0        1.273041   -2.660290    4.817601
    106          1           0        2.819633   -4.477145    5.458700
    107          1           0        4.217887   -5.608646    3.727954
    108          1           0        4.066847   -4.883349    1.344360
    109          1           0        2.542272   -3.028199    0.703914
    110          1           0       -1.175415   -3.039744    0.634455
    111          1           0       -3.303497   -4.208836    1.113036
    112          1           0       -4.385945   -3.981694    3.353212
    113          1           0       -3.303505   -2.579103    5.111775
    114          1           0       -1.171584   -1.433704    4.652828
 ---------------------------------------------------------------------

 SCF Done:  E(RB3LYP) =  -4381.94312211     A.U. after   10 cycles

 The electronic state is 1-A.
 Alpha  occ. eigenvalues -- -101.43989 -77.09864 -77.09863 -77.09859 -77.09830
 Alpha  occ. eigenvalues --  -19.15749 -19.15718 -14.55244 -14.32652 -10.24360
 Alpha  occ. eigenvalues --  -10.23212 -10.23072 -10.20902 -10.19929 -10.19922
 Alpha  occ. eigenvalues --  -10.19765 -10.19753 -10.19748 -10.19708 -10.19698
 Alpha  occ. eigenvalues --  -10.19610 -10.19596 -10.19501 -10.19430 -10.19170
 Alpha  occ. eigenvalues --  -10.19141 -10.19097 -10.19094 -10.19065 -10.19064
 Alpha  occ. eigenvalues --  -10.18992 -10.18992 -10.18846 -10.18846 -10.18824
 Alpha  occ. eigenvalues --  -10.18808 -10.18803 -10.18783 -10.18783 -10.18768
 Alpha  occ. eigenvalues --  -10.18758 -10.18755 -10.18719 -10.18713 -10.18704
 Alpha  occ. eigenvalues --  -10.18693 -10.18659 -10.18649 -10.18642 -10.18638
 Alpha  occ. eigenvalues --  -10.18625 -10.18625 -10.18623 -10.18622 -10.18571
 Alpha  occ. eigenvalues --  -10.18556 -10.18529 -10.18524 -10.18489 -10.18489
 Alpha  occ. eigenvalues --  -10.18414 -10.18407 -10.18318 -10.18309 -10.16314
 Alpha  occ. eigenvalues --  -10.13644  -9.37310  -7.13103  -7.12785  -7.12773
 Alpha  occ. eigenvalues --   -6.58093  -6.58080  -6.58078  -6.58065  -4.74258
 Alpha  occ. eigenvalues --   -4.74241  -4.74240  -4.74232  -4.74209  -4.74208
 Alpha  occ. eigenvalues --   -4.74204  -4.74172  -4.73891  -4.73872  -4.73870
 Alpha  occ. eigenvalues --   -4.73864  -3.00901  -1.85534  -1.85035  -1.84709
 Alpha  occ. eigenvalues --   -1.23066  -1.05549  -0.95806  -0.86912  -0.86835
 Alpha  occ. eigenvalues --   -0.86746  -0.86689  -0.86225  -0.86200  -0.86150
 Alpha  occ. eigenvalues --   -0.86115  -0.84573  -0.80161  -0.79535  -0.79307
 Alpha  occ. eigenvalues --   -0.77466  -0.77411  -0.75670  -0.75638  -0.75577
 Alpha  occ. eigenvalues --   -0.75544  -0.75524  -0.75446  -0.75422  -0.75322
 Alpha  occ. eigenvalues --   -0.75281  -0.75206  -0.75164  -0.75099  -0.74687
 Alpha  occ. eigenvalues --   -0.73849  -0.73517  -0.73047  -0.69397  -0.65669
 Alpha  occ. eigenvalues --   -0.65593  -0.64576  -0.63535  -0.63344  -0.61637
 Alpha  occ. eigenvalues --   -0.61611  -0.61485  -0.61401  -0.61353  -0.61236
 Alpha  occ. eigenvalues --   -0.61152  -0.61137  -0.61120  -0.60673  -0.60586
 Alpha  occ. eigenvalues --   -0.60499  -0.60489  -0.57266  -0.57133  -0.56734
 Alpha  occ. eigenvalues --   -0.56570  -0.56175  -0.54498  -0.54036  -0.52895
 Alpha  occ. eigenvalues --   -0.52830  -0.52676  -0.52508  -0.52366  -0.52229
 Alpha  occ. eigenvalues --   -0.51551  -0.50737  -0.50663  -0.49650  -0.47201
 Alpha  occ. eigenvalues --   -0.46813  -0.46665  -0.46610  -0.46563  -0.46468
 Alpha  occ. eigenvalues --   -0.46208  -0.46093  -0.46059  -0.46007  -0.45950
 Alpha  occ. eigenvalues --   -0.45884  -0.45792  -0.45572  -0.45525  -0.45497
 Alpha  occ. eigenvalues --   -0.45407  -0.45163  -0.45039  -0.43878  -0.43539
 Alpha  occ. eigenvalues --   -0.43359  -0.43298  -0.43139  -0.43127  -0.42962
 Alpha  occ. eigenvalues --   -0.42881  -0.42746  -0.42663  -0.42661  -0.41910
 Alpha  occ. eigenvalues --   -0.41680  -0.41514  -0.41000  -0.40151  -0.40055
 Alpha  occ. eigenvalues --   -0.39772  -0.39358  -0.38781  -0.38509  -0.38474
 Alpha  occ. eigenvalues --   -0.38243  -0.37997  -0.37926  -0.37731  -0.37674
 Alpha  occ. eigenvalues --   -0.37656  -0.36578  -0.36278  -0.35910  -0.35807
 Alpha  occ. eigenvalues --   -0.35611  -0.35555  -0.35496  -0.35436  -0.35391
 Alpha  occ. eigenvalues --   -0.35331  -0.34382  -0.34056  -0.33989  -0.33861
 Alpha  occ. eigenvalues --   -0.33599  -0.33444  -0.33385  -0.32975  -0.32392
 Alpha  occ. eigenvalues --   -0.32304  -0.32203  -0.30440  -0.30308  -0.30028
 Alpha  occ. eigenvalues --   -0.29771  -0.29347  -0.28576  -0.28374  -0.27743
 Alpha  occ. eigenvalues --   -0.27530  -0.27367  -0.27333  -0.27096  -0.27045
 Alpha  occ. eigenvalues --   -0.26885  -0.26601  -0.26514  -0.26456  -0.26343
 Alpha  occ. eigenvalues --   -0.26256  -0.26189  -0.26143  -0.25782  -0.25645
 Alpha  occ. eigenvalues --   -0.25168  -0.24232  -0.23630  -0.23322  -0.20524
 Alpha  occ. eigenvalues --   -0.19636
 Alpha virt. eigenvalues --   -0.10035  -0.05136  -0.04958  -0.04671  -0.04435
 Alpha virt. eigenvalues --   -0.04252  -0.04037  -0.03866  -0.03708  -0.03319
 Alpha virt. eigenvalues --   -0.02977  -0.02894  -0.02644  -0.02401  -0.02222

 Mulliken charges:
               1
     1  Ru  -0.353370
     2  Cl  -0.494022
     3  P    0.466904
     4  P    0.462278
     5  P    0.391181
     6  P    0.359654
     7  O   -0.363623
     8  O   -0.366765
     9  N    0.427209
    10  N   -0.330920
    11  C    0.356793
    12  C   -0.292595
    13  C    0.002031
    14  C   -0.215967
    15  C   -0.129206
    16  C    0.063766
    17  C   -0.071709
    18  C   -0.362999
    19  C   -0.419579
    20  C   -0.006138
    21  C   -0.153192
    22  C   -0.169352
    23  C   -0.112978
    24  C   -0.144756
    25  C   -0.162481
    26  C   -0.106844
    27  C   -0.191534
    28  C   -0.137574
    29  C   -0.104666
    30  C   -0.160584
    31  C   -0.098546
    32  C   -0.008608
    33  C   -0.152804
    34  C   -0.174340
    35  C   -0.110611
    36  C   -0.151426
    37  C   -0.156642
    38  C   -0.106993
    39  C   -0.188969
    40  C   -0.137898
    41  C   -0.104280
    42  C   -0.158749
    43  C   -0.107357
    44  C    0.078416
    45  C   -0.122343
    46  C   -0.182751
    47  C   -0.081524
    48  C   -0.208559
    49  C   -0.170363
    50  C   -0.042443
    51  C   -0.089690
    52  C   -0.186587
    53  C   -0.094028
    54  C   -0.142752
    55  C   -0.168278
    56  C   -0.006768
    57  C   -0.166576
    58  C   -0.145164
    59  C   -0.093235
    60  C   -0.188342
    61  C   -0.102771
    62  C    0.106501
    63  C   -0.155762
    64  C   -0.209404
    65  C   -0.086325
    66  C   -0.169815
    67  C   -0.178305
    68  H    0.153896
    69  H    0.157088
    70  H    0.150883
    71  H    0.150688
    72  H    0.156684
    73  H    0.188485
    74  H    0.160953
    75  H    0.160782
    76  H    0.132099
    77  H    0.131658
    78  H    0.130899
    79  H    0.143388
    80  H    0.145497
    81  H    0.130192
    82  H    0.131703
    83  H    0.129798
    84  H    0.176589
    85  H    0.163824
    86  H    0.132044
    87  H    0.131531
    88  H    0.130863
    89  H    0.146547
    90  H    0.145338
    91  H    0.130097
    92  H    0.131695
    93  H    0.129700
    94  H    0.181643
    95  H    0.115507
    96  H    0.127916
    97  H    0.131231
    98  H    0.130056
    99  H    0.208344
   100  H    0.170287
   101  H    0.128416
   102  H    0.132502
   103  H    0.130725
   104  H    0.136471
   105  H    0.131550
   106  H    0.130322
   107  H    0.132227
   108  H    0.127940
   109  H    0.165666
   110  H    0.209901
   111  H    0.130337
   112  H    0.131271
   113  H    0.128722
   114  H    0.131173
 Sum of Mulliken charges =   0.00000

 Dipole moment (field-independent basis, Debye):
    X=              6.9516    Y=              0.1648    Z=              3.8798  Tot=              7.9627
 Quadrupole moment (field-independent basis, Debye-Ang):
   XX=           -508.4271   YY=           -394.3090   ZZ=           -395.3022
   XY=             -1.1608   XZ=            -46.6721   YZ=             -0.0428

  Exact polarizability:1541.007   3.1981060.013  50.682   2.6101112.016
 Approx polarizability:1871.806   3.9551232.033  95.200   3.3051422.852

 1\1\GINC-NEQC30\SP\RB3LYP\Gen\C57H47Cl1N2O2P4Ru1\GUEST\18-Sep-2019\0\\
 #B3LYP/gen gfinput scf=(maxcycle=1000,conver=4) Polar CPHF=RdFreq scrf
 =(solvent=THF) pseudo=read\\propriedade\\0,1\Ru,0,-0.879529,-0.004921,
 0.253265\Cl,0,-3.317377,-0.017055,1.016779\P,0,-1.002757,-1.410242,-1.
 717022\P,0,-1.02341,1.391118,-1.72913\P,0,-0.554348,-1.414156,2.178573
 \P,0,-0.618483,1.395908,2.195837\O,0,8.512169,0.081986,-1.216055\O,0,7
 .796392,0.064365,-3.259446\N,0,7.606667,0.069293,-2.045606\N,0,3.90635
 7,0.034599,-2.09541\C,0,1.041916,0.015994,-0.112564\C,0,2.252978,0.027

 Normal termination of Gaussian 09 at Wed Sep 18 12:33:38 2019.
