 Gaussian 16, Revision C.01,
 Gaussian 16:  EM64L-G16RevC.01  3-Jul-2019

 ----------------------------------------------------------------------
 #p CAM-B3LYP/gen gfinput scf=maxcycle=200 Polar=(DCSHG) CPHF=RdFreq sc
 rf=(iefpcm,read,solvent=Chloroform)
 ----------------------------------------------------------------------

 ------------------------------
 Primeira Hiperpolarizabilidade
 ------------------------------
 Symbolic Z-matrix:
 Charge =  0 Multiplicity = 1

                         Standard orientation:
 ---------------------------------------------------------------------
 Center     Atomic      Atomic             Coordinates (Angstroms)
 Number     Number       Type             X           Y           Z
 ---------------------------------------------------------------------
      1          6           0       -0.403599    5.517400   -0.000000
      2          6           0       -1.712449    5.025260   -0.000000
      3          6           0       -1.949029    3.648780   -0.000000
      4          6           0       -0.877049    2.754570   -0.000000
      5          6           0        0.438601    3.253630   -0.000000
      6          6           0        0.674041    4.632080   -0.000000
      7          6           0        1.560970    2.303389   -0.000000
      8          6           0        1.268370    0.847919   -0.000000
      9          6           0       -0.000000    0.323710   -0.000000
     10          6           0       -1.145340    1.280410   -0.000000
     11          6           0       -0.350050   -1.083970    0.000000
     12          6           0        0.490409   -2.148180    0.000000
     13          6           0        0.092699   -3.557220    0.000000
     14          6           0        1.105539   -4.537301    0.000000
     15          6           0        0.797309   -5.896491    0.000000
     16          6           0       -0.536201   -6.310310    0.000000
     17          6           0       -1.248691   -3.994610    0.000000
     18          6           0       -1.555961   -5.351510    0.000000
     19          8           0        2.376400    0.093219   -0.000000
     20          8           0        2.751180    2.639299   -0.000000
     21          8           0       -2.305830    0.873580   -0.000000
     22          1           0       -0.224979    6.588060   -0.000000
     23          1           0       -2.550499    5.715440   -0.000000
     24          1           0        1.697821    4.990369   -0.000000
     25          1           0       -2.958019    3.251720   -0.000000
     26          1           0       -1.423250   -1.248060    0.000000
     27          1           0        1.560930   -1.974631    0.000000
     28          1           0       -2.056751   -3.270030    0.000000
     29          1           0       -2.595731   -5.666000    0.000000
     30          1           0       -0.781492   -7.368250    0.000000
     31          1           0        2.145089   -4.219591    0.000000
     32          1           0        1.597099   -6.631471    0.000000
     33          1           0        3.118370    0.738329   -0.000000
 ---------------------------------------------------------------------

 SCF Done:  E(RCAM-B3LYP) =  -918.383154647     A.U. after   17 cycles

 The electronic state is 1-A'.
 Alpha  occ. eigenvalues --  -19.28437 -19.25679 -19.23818 -10.38859 -10.37929
 Alpha  occ. eigenvalues --  -10.36139 -10.30246 -10.30130 -10.30065 -10.29361
 Alpha  occ. eigenvalues --  -10.29231 -10.29100 -10.28969 -10.28061 -10.27742
 Alpha  occ. eigenvalues --  -10.27432 -10.27051 -10.27037 -10.27024 -10.26973
 Alpha  occ. eigenvalues --  -10.26943  -1.19478  -1.14616  -1.14576  -0.97944
 Alpha  occ. eigenvalues --   -0.95237  -0.92972  -0.88852  -0.86427  -0.85903
 Alpha  occ. eigenvalues --   -0.83491  -0.81554  -0.77875  -0.73778  -0.72979
 Alpha  occ. eigenvalues --   -0.69810  -0.68410  -0.68015  -0.65863  -0.63623
 Alpha  occ. eigenvalues --   -0.61688  -0.59693  -0.58628  -0.56568  -0.55511
 Alpha  occ. eigenvalues --   -0.54649  -0.54286  -0.53542  -0.52357  -0.52151
 Alpha  occ. eigenvalues --   -0.52098  -0.50212  -0.49544  -0.49105  -0.48717
 Alpha  occ. eigenvalues --   -0.48619  -0.47929  -0.45333  -0.44910  -0.44343
 Alpha  occ. eigenvalues --   -0.43839  -0.43141  -0.41633  -0.40453  -0.38932
 Alpha  occ. eigenvalues --   -0.37321  -0.34582  -0.34467  -0.33475  -0.33145
 Alpha  occ. eigenvalues --   -0.31662  -0.26672
 Alpha virt. eigenvalues --   -0.08981  -0.02614  -0.00514   0.02576   0.02850
 Alpha virt. eigenvalues --    0.03256   0.03869   0.04113   0.04789   0.05369
 Alpha virt. eigenvalues --    0.06339   0.06340   0.06485   0.07145   0.07656

 Mulliken charges:
               1
     1  C   -0.154910
     2  C   -0.086226
     3  C   -0.090467
     4  C   -0.045599
     5  C   -0.004689
     6  C    0.004414
     7  C   -0.273737
     8  C   -0.366979
     9  C    1.068956
    10  C   -0.494107
    11  C    0.527705
    12  C    0.029446
    13  C    0.240580
    14  C   -0.543833
    15  C   -0.050477
    16  C   -0.169457
    17  C   -0.027289
    18  C   -0.183228
    19  O   -0.529091
    20  O   -0.522801
    21  O   -0.464823
    22  H    0.165056
    23  H    0.164805
    24  H    0.180443
    25  H    0.179007
    26  H    0.144172
    27  H    0.155362
    28  H    0.140552
    29  H    0.149187
    30  H    0.148129
    31  H    0.144609
    32  H    0.148914
    33  H    0.416376
 Sum of Mulliken charges =  -0.00000

 Dipole moment (field-independent basis, Debye):
    X=              0.1236    Y=              2.6585    Z=              0.0000  Tot=              2.6614
 Quadrupole moment (field-independent basis, Debye-Ang):
   XX=           -121.8077   YY=            -86.1671   ZZ=           -127.2308
   XY=             -7.5521   XZ=              0.0000   YZ=             -0.0000

  Exact polarizability:     320.414      25.025     513.100       0.000      -0.000     129.255
 Approx polarizability:     344.772      24.896     395.615      -0.000      -0.000     141.117

 Normal termination of Gaussian 16 at Tue Jul 26 22:10:12 2022.
